;
;	File 'topol.top' was generated
;	By user: unknown (1000)
;	On host: LAPTOP-FH5DKSV7
;	At date: Fri Sep 18 15:20:29 2026
;
;	This is a standalone topology file
;
;	Created by:
;	                    :-) GROMACS - gmx pdb2gmx, 2024.1 (-:
;	
;	Executable:   /home/pratul/gmx_env/bin/gmx
;	Data prefix:  /home/pratul/gmx_env
;	Working dir:  /home/pratul/bbb_simulation
;	Command line:
;	  gmx pdb2gmx -f complex_30A.pdb -o complex.gro -water tip3p -ff amber99sb-ildn -chainsep id_or_ter -ignh
;	Force field was read from the standard GROMACS share directory.
;

; Include forcefield parameters
#include "amber99sb-ildn.ff/forcefield.itp"

; Include chain topologies
#include "topol_Protein_chain_A.itp"
#include "topol_Protein_chain_B.itp"

; Include water topology
#include "amber99sb-ildn.ff/tip3p.itp"

#ifdef POSRES_WATER
; Position restraint for each water oxygen
[ position_restraints ]
;  i funct       fcx        fcy        fcz
   1    1       1000       1000       1000
#endif

; Include topology for ions
#include "amber99sb-ildn.ff/ions.itp"


; Position restraints for Aga2p N-terminus (cell wall anchor simulation)
#ifdef POSRES_ANCHOR
#include "posre_anchor.itp"
#endif

[ system ]
; Name
Protein in water

[ molecules ]
; Compound        #mols
Protein_chain_A     1
Protein_chain_B     1
SOL         79360
NA               239
CL               231
